[  
   {  
      "Atomic_number":"1",
      "Group":"1",
      "Period":"1",
      "Symbol":"H",
      "Designation":"Hydrogen",
      "Classification":"Nonmetals",
      "Relative_atomic_mass":"1.00794",
      "Melting_point":"-259.14",
      "Boiling_point":"-252.87",
      "Density":"0.084",
      "Oxidation_stats":"-1,1",
      "Electronegativity":"2.2",
      "Atomic_radius":"37.5",
      "Electron_configuration":"1S1",
      "Ground_level":"2S1|2",
      "Ionization_energy":"13.5984",
      "Picture":"H.png",
      "Thai_name":"ไฮโดรเจน",
      "Status":"อโลหะ"
   },
   {  
      "Atomic_number":"2",
      "Group":"18",
      "Period":"1",
      "Symbol":"He",
      "Designation":"Helium",
      "Classification":"Inert gases",
      "Relative_atomic_mass":"4.0026",
      "Melting_point":"-272.2",
      "Boiling_point":"-268.93",
      "Density":"0.17",
      "Oxidation_stats":"-",
      "Electronegativity":"-",
      "Atomic_radius":"128",
      "Electron_configuration":"1S2",
      "Ground_level":"1S0",
      "Ionization_energy":"24.5874",
      "Picture":"He.png",
      "Thai_name":"ฮีเลียม",
      "Status":"ก๊าซมีตระกูล"
   },
   {  
      "Atomic_number":"3",
      "Group":"1",
      "Period":"2",
      "Symbol":"LI",
      "Designation":"Lithium",
      "Classification":"Alkali metals",
      "Relative_atomic_mass":"6.941",
      "Melting_point":"180.54",
      "Boiling_point":"1347",
      "Density":"0.53",
      "Oxidation_stats":"1",
      "Electronegativity":"0.97",
      "Atomic_radius":"152",
      "Electron_configuration":"[He] 2S1",
      "Ground_level":"2S1|2",
      "Ionization_energy":"5.3917",
      "Picture":"Li.png",
      "Thai_name":"ลิเทียม",
      "Status":"โลหะแอลคาไลน์"
   },
   {  
      "Atomic_number":"4",
      "Group":"2",
      "Period":"2",
      "Symbol":"Be",
      "Designation":"Beryllium",
      "Classification":"Alkaline-earth metals",
      "Relative_atomic_mass":"9.01218",
      "Melting_point":"1278",
      "Boiling_point":"2970",
      "Density":"1.85",
      "Oxidation_stats":"2",
      "Electronegativity":"1.47",
      "Atomic_radius":"111.3",
      "Electron_configuration":"[He]2S2",
      "Ground_level":"1S0",
      "Ionization_energy":"9.3227",
      "Picture":"Be.png",
      "Thai_name":"เบริลเลียม",
      "Status":"โลหะแอลคาไลน์เอิร์ท"
   },
   {  
      "Atomic_number":"5",
      "Group":"13",
      "Period":"2",
      "Symbol":"B",
      "Designation":"Boron",
      "Classification":"Semimetallics",
      "Relative_atomic_mass":"10.811",
      "Melting_point":"2075",
      "Boiling_point":"4000",
      "Density":"2.46",
      "Oxidation_stats":"3",
      "Electronegativity":"2.01",
      "Atomic_radius":"79.5",
      "Electron_configuration":"[He]2S2 2P1",
      "Ground_level":"2Po1|2",
      "Ionization_energy":"8.298",
      "Picture":"B.png",
      "Thai_name":"โบรอน",
      "Status":"ธาตุกึ่งโลหะ"
   },
   {  
      "Atomic_number":"6",
      "Group":"14",
      "Period":"2",
      "Symbol":"C",
      "Designation":"Carbon",
      "Classification":"Nonmetals",
      "Relative_atomic_mass":"12.0107",
      "Melting_point":"3550",
      "Boiling_point":"4827",
      "Density":"3.51",
      "Oxidation_stats":"-4,2,4",
      "Electronegativity":"2.5",
      "Atomic_radius":"77.2",
      "Electron_configuration":"[He]2S2 2P2",
      "Ground_level":"3P0",
      "Ionization_energy":"11.2603",
      "Picture":"C.png",
      "Thai_name":"คาร์บอน",
      "Status":"อโลหะ"
   },
   {  
      "Atomic_number":"7",
      "Group":"15",
      "Period":"2",
      "Symbol":"N",
      "Designation":"Nitrogen",
      "Classification":"Nonmetals",
      "Relative_atomic_mass":"14.0067",
      "Melting_point":"-209.86",
      "Boiling_point":"-195.8",
      "Density":"1.17",
      "Oxidation_stats":"-3,2,3,4,5",
      "Electronegativity":"3.07",
      "Atomic_radius":"71",
      "Electron_configuration":"[He]2S2 2P3",
      "Ground_level":"4So3|2",
      "Ionization_energy":"14.5341",
      "Picture":"N.png",
      "Thai_name":"ไนโตรเจน",
      "Status":"อโลหะ"
   },
   {  
      "Atomic_number":"8",
      "Group":"16",
      "Period":"2",
      "Symbol":"O",
      "Designation":"Oxygen",
      "Classification":"Nonmetals",
      "Relative_atomic_mass":"15.9994",
      "Melting_point":"-218.4",
      "Boiling_point":"-182.96",
      "Density":"1.33",
      "Oxidation_stats":"-2,-1",
      "Electronegativity":"3.5",
      "Atomic_radius":"60.4",
      "Electron_configuration":"[He]2S2 2P4",
      "Ground_level":"3P2",
      "Ionization_energy":"13.6181",
      "Picture":"O.png",
      "Thai_name":"ออกซิเจน",
      "Status":"อโลหะ"
   },
   {  
      "Atomic_number":"9",
      "Group":"17",
      "Period":"2",
      "Symbol":"F",
      "Designation":"Fluorine",
      "Classification":"Halogens",
      "Relative_atomic_mass":"18.9984",
      "Melting_point":"-219.62",
      "Boiling_point":"-188.14",
      "Density":"1.58",
      "Oxidation_stats":"-1",
      "Electronegativity":"4.1",
      "Atomic_radius":"70.9",
      "Electron_configuration":"[He]2S2 2P5",
      "Ground_level":"2Po3|2",
      "Ionization_energy":"17.4228",
      "Picture":"F.png",
      "Thai_name":"ฟลูออรีน",
      "Status":"แฮโลเจน"
   },
   {  
      "Atomic_number":"10",
      "Group":"18",
      "Period":"2",
      "Symbol":"Ne",
      "Designation":"Neon",
      "Classification":"Inert gases",
      "Relative_atomic_mass":"20.1797",
      "Melting_point":"-248.67",
      "Boiling_point":"-246.05",
      "Density":"0.84",
      "Oxidation_stats":"-",
      "Electronegativity":"-",
      "Atomic_radius":"-",
      "Electron_configuration":"[He]2S2 2P6",
      "Ground_level":"1S0",
      "Ionization_energy":"21.5645",
      "Picture":"Ne.png",
      "Thai_name":"นีออน",
      "Status":"ก๊าซมีตระกูล"
   },
   {  
      "Atomic_number":"11",
      "Group":"1",
      "Period":"3",
      "Symbol":"Na",
      "Designation":"Sodium",
      "Classification":"Alkali metals",
      "Relative_atomic_mass":"22.9898",
      "Melting_point":"97.81",
      "Boiling_point":"882.9",
      "Density":"0.97",
      "Oxidation_stats":"1",
      "Electronegativity":"1.01",
      "Atomic_radius":"153.7",
      "Electron_configuration":"[He] 3S1",
      "Ground_level":"2S1|2",
      "Ionization_energy":"5.1391",
      "Picture":"Na.png",
      "Thai_name":"โซเดียม",
      "Status":"โลหะแอลคาไลน์"
   },
   {  
      "Atomic_number":"12",
      "Group":"2",
      "Period":"3",
      "Symbol":"Mg",
      "Designation":"Magnesium",
      "Classification":"Alkaline-earth metals",
      "Relative_atomic_mass":"24.305",
      "Melting_point":"648.8",
      "Boiling_point":"1090",
      "Density":"1.74",
      "Oxidation_stats":"2",
      "Electronegativity":"1.23",
      "Atomic_radius":"159.9",
      "Electron_configuration":"[Ne] 3S2",
      "Ground_level":"1S0",
      "Ionization_energy":"7.6462",
      "Picture":"Mg.png",
      "Thai_name":"แมกนีเซียม",
      "Status":"โลหะแอลคาไลน์เอิร์ท"
   },
   {  
      "Atomic_number":"13",
      "Group":"13",
      "Period":"3",
      "Symbol":"Al",
      "Designation":"Aluminium",
      "Classification":"Other metals",
      "Relative_atomic_mass":"26.9815",
      "Melting_point":"660.37",
      "Boiling_point":"2467",
      "Density":"2.7",
      "Oxidation_stats":"3",
      "Electronegativity":"1.47",
      "Atomic_radius":"143.2",
      "Electron_configuration":"[Ne] 3S2 3P1",
      "Ground_level":"2Po1|2",
      "Ionization_energy":"7.57",
      "Picture":"Al.png",
      "Thai_name":"อะลูมิเนียม",
      "Status":"โลหะหลังทรานซิชัน"
   },
   {  
      "Atomic_number":"14",
      "Group":"14",
      "Period":"3",
      "Symbol":"Si",
      "Designation":"Silicon",
      "Classification":"Semimetallics",
      "Relative_atomic_mass":"28.0855",
      "Melting_point":"1410",
      "Boiling_point":"2355",
      "Density":"2.33",
      "Oxidation_stats":"-4,4",
      "Electronegativity":"1.74",
      "Atomic_radius":"117.6",
      "Electron_configuration":"[Ne] 3S2 3P2",
      "Ground_level":"3P0",
      "Ionization_energy":"8.1517",
      "Picture":"Si.png",
      "Thai_name":"ซิลิคอน",
      "Status":"ธาตุกึ่งโลหะ"
   },
   {  
      "Atomic_number":"15",
      "Group":"15",
      "Period":"3",
      "Symbol":"P",
      "Designation":"Phosphorus",
      "Classification":"Nonmetals",
      "Relative_atomic_mass":"30.9738",
      "Melting_point":"44.1",
      "Boiling_point":"280",
      "Density":"1.82",
      "Oxidation_stats":"-3,3,5",
      "Electronegativity":"2.06",
      "Atomic_radius":"110.5",
      "Electron_configuration":"[Ne] 3S2 3P3",
      "Ground_level":"4So3|2",
      "Ionization_energy":"10.4867",
      "Picture":"P.png",
      "Thai_name":"ฟอสฟอรัส",
      "Status":"อโลหะ"
   },
   {  
      "Atomic_number":"16",
      "Group":"16",
      "Period":"3",
      "Symbol":"S",
      "Designation":"Sulfur",
      "Classification":"Nonmetals",
      "Relative_atomic_mass":"32.065",
      "Melting_point":"112.8",
      "Boiling_point":"444.67",
      "Density":"2.06",
      "Oxidation_stats":"-2,2,4,6",
      "Electronegativity":"2.44",
      "Atomic_radius":"103.5",
      "Electron_configuration":"[Ne] 3S2 3P4",
      "Ground_level":"3P2",
      "Ionization_energy":"10.36",
      "Picture":"S.png",
      "Thai_name":"กำมะถัน",
      "Status":"อโลหะ"
   },
   {  
      "Atomic_number":"17",
      "Group":"17",
      "Period":"3",
      "Symbol":"Cl",
      "Designation":"Chlorine",
      "Classification":"Halogens",
      "Relative_atomic_mass":"35.453",
      "Melting_point":"-100.98",
      "Boiling_point":"-34.6",
      "Density":"2.95",
      "Oxidation_stats":"-1,1,3,5,7",
      "Electronegativity":"2.83",
      "Atomic_radius":"99.4",
      "Electron_configuration":"[Ne] 3S2 3P5",
      "Ground_level":"3Po3|2",
      "Ionization_energy":"12.9676",
      "Picture":"Cl.png",
      "Thai_name":"คลอรีน",
      "Status":"แฮโลเจน"
   },
   {  
      "Atomic_number":"18",
      "Group":"13",
      "Period":"3",
      "Symbol":"Ar",
      "Designation":"Argon",
      "Classification":"Inert gases",
      "Relative_atomic_mass":"39.948",
      "Melting_point":"-189.2",
      "Boiling_point":"-185.7",
      "Density":"1.66",
      "Oxidation_stats":"-",
      "Electronegativity":"-",
      "Atomic_radius":"174",
      "Electron_configuration":"[Ne] 3S2 3P6",
      "Ground_level":"1S0",
      "Ionization_energy":"15.7596",
      "Picture":"Ar.png",
      "Thai_name":"อาร์กอน",
      "Status":"ก๊าซมีตระกูล"
   },
   {  
      "Atomic_number":"19",
      "Group":"1",
      "Period":"4",
      "Symbol":"K",
      "Designation":"Potassium",
      "Classification":"Alkali metals",
      "Relative_atomic_mass":"39.0983",
      "Melting_point":"63.65",
      "Boiling_point":"774",
      "Density":"0.86",
      "Oxidation_stats":"1",
      "Electronegativity":"0.91",
      "Atomic_radius":"227.2",
      "Electron_configuration":"[Ar] 4S1",
      "Ground_level":"2S1|2",
      "Ionization_energy":"4.3407",
      "Picture":"K.png",
      "Thai_name":"โพแทสเซียม",
      "Status":"โลหะแอลคาไลน์"
   },
   {  
      "Atomic_number":"20",
      "Group":"2",
      "Period":"4",
      "Symbol":"Ca",
      "Designation":"Calcium",
      "Classification":"Alkaline-earth metals",
      "Relative_atomic_mass":"40.078",
      "Melting_point":"839",
      "Boiling_point":"1484",
      "Density":"1.54",
      "Oxidation_stats":"2",
      "Electronegativity":"1.04",
      "Atomic_radius":"197.4",
      "Electron_configuration":"[Ar] 4S2",
      "Ground_level":"1S0",
      "Ionization_energy":"6.1132",
      "Picture":"Ca.png",
      "Thai_name":"แคลเซียม",
      "Status":"โลหะแอลคาไลน์เอิร์ท"
   },
   {  
      "Atomic_number":"21",
      "Group":"3",
      "Period":"4",
      "Symbol":"Sc",
      "Designation":"Scandium",
      "Classification":"Transition metals",
      "Relative_atomic_mass":"44.9559",
      "Melting_point":"1541",
      "Boiling_point":"2831",
      "Density":"2.99",
      "Oxidation_stats":"3",
      "Electronegativity":"1.2",
      "Atomic_radius":"162",
      "Electron_configuration":"[Ar] 3D1 4S2",
      "Ground_level":"2D3|2",
      "Ionization_energy":"6.5615",
      "Picture":"Sc.png",
      "Thai_name":"สแกนเดียม",
      "Status":"โลหะทรานซิชัน"
   },
   {  
      "Atomic_number":"22",
      "Group":"4",
      "Period":"4",
      "Symbol":"Ti",
      "Designation":"Titanium",
      "Classification":"Transition metals",
      "Relative_atomic_mass":"47.867",
      "Melting_point":"1660",
      "Boiling_point":"3287",
      "Density":"4.51",
      "Oxidation_stats":"3,4",
      "Electronegativity":"1.32",
      "Atomic_radius":"144.8",
      "Electron_configuration":"[Ar] 3D2 4S2",
      "Ground_level":"3F2",
      "Ionization_energy":"6.8281",
      "Picture":"Ti.png",
      "Thai_name":"ไทเทเนียม",
      "Status":"โลหะทรานซิชัน"
   },
   {  
      "Atomic_number":"23",
      "Group":"5",
      "Period":"4",
      "Symbol":"V",
      "Designation":"Vanadium",
      "Classification":"Transition metals",
      "Relative_atomic_mass":"50.9415",
      "Melting_point":"1890",
      "Boiling_point":"3380",
      "Density":"6.09",
      "Oxidation_stats":"0,2,3,4,5",
      "Electronegativity":"1.45",
      "Atomic_radius":"134",
      "Electron_configuration":"[Ar] 3D3 4S2",
      "Ground_level":"4F3|2",
      "Ionization_energy":"6.7462",
      "Picture":"V.png",
      "Thai_name":"วาเนเดียม",
      "Status":"โลหะทรานซิชัน"
   },
   {  
      "Atomic_number":"24",
      "Group":"6",
      "Period":"4",
      "Symbol":"Cr",
      "Designation":"Chromium",
      "Classification":"Transition metals",
      "Relative_atomic_mass":"51.9961",
      "Melting_point":"1857",
      "Boiling_point":"2672",
      "Density":"7.14",
      "Oxidation_stats":"0,2,3,6",
      "Electronegativity":"1.56",
      "Atomic_radius":"128",
      "Electron_configuration":"[Ar] 3D5 4S1",
      "Ground_level":"7S3",
      "Ionization_energy":"6.7462",
      "Picture":"Cr.png",
      "Thai_name":"โครเมียม",
      "Status":"โลหะทรานซิชัน"
   },
   {  
      "Atomic_number":"25",
      "Group":"7",
      "Period":"4",
      "Symbol":"Mn",
      "Designation":"Manganese",
      "Classification":"Transition metals",
      "Relative_atomic_mass":"54.938",
      "Melting_point":"1244",
      "Boiling_point":"1962",
      "Density":"7.44",
      "Oxidation_stats":"-1,0,2,3,4,6,7",
      "Electronegativity":"1.6",
      "Atomic_radius":"127",
      "Electron_configuration":"[Ar] 3D5 4S2",
      "Ground_level":"6S5|2",
      "Ionization_energy":"7.434",
      "Picture":"Mn.png",
      "Thai_name":"แมงกานีส",
      "Status":"โลหะทรานซิชัน"
   },
   {  
      "Atomic_number":"26",
      "Group":"8",
      "Period":"4",
      "Symbol":"Fe",
      "Designation":"Iron",
      "Classification":"Transition metals",
      "Relative_atomic_mass":"55.845",
      "Melting_point":"1535",
      "Boiling_point":"2750",
      "Density":"7.87",
      "Oxidation_stats":"-2,0,2,3,6",
      "Electronegativity":"1.64",
      "Atomic_radius":"126",
      "Electron_configuration":"[Ar] 3D6 4S2",
      "Ground_level":"5D4",
      "Ionization_energy":"7.9024",
      "Picture":"Fe.png",
      "Thai_name":"เหล็ก",
      "Status":"โลหะทรานซิชัน"
   },
   {  
      "Atomic_number":"27",
      "Group":"9",
      "Period":"4",
      "Symbol":"Co",
      "Designation":"Cobalt",
      "Classification":"Transition metals",
      "Relative_atomic_mass":"58.9332",
      "Melting_point":"1495",
      "Boiling_point":"2870",
      "Density":"8.89",
      "Oxidation_stats":"-1,0,2,3",
      "Electronegativity":"1.7",
      "Atomic_radius":"125.3",
      "Electron_configuration":"[Ar] 3D7 4S2",
      "Ground_level":"4F9|2",
      "Ionization_energy":"7.881",
      "Picture":"Co.png",
      "Thai_name":"โคบอลต์",
      "Status":"โลหะทรานซิชัน"
   }
]
